Variables="X","Y","Z","GAMMA"
ZONE T="WING" i=6,j=41,k=1, ZONETYPE=Ordered
DATAPACKING=BLOCK
VARLOCATION=([4]=CELLCENTERED)
0.000000 0.200000 0.400000 0.600000 0.800000 1.000000 0.000384 0.200230 0.400077 0.599923 0.799770 0.999616 0.001534 0.200920 0.400307 0.599693 0.799080 0.998466 0.003448 0.202069 0.400690 0.599310 0.797931 0.996552 0.006125 0.203675 0.401225 0.598775 0.796325 0.993875 0.009559 0.205735 0.401912 0.598088 0.794265 0.990441 0.013745 0.208247 0.402749 0.597251 0.791753 0.986255 0.018677 0.211206 0.403735 0.596265 0.788794 0.981323 0.024346 0.214608 0.404869 0.595131 0.785392 0.975654 0.030745 0.218447 0.406149 0.593851 0.781553 0.969255 0.037862 0.222717 0.407572 0.592428 0.777283 0.962138 0.045687 0.227412 0.409137 0.590863 0.772588 0.954313 0.054208 0.232525 0.410842 0.589158 0.767475 0.945792 0.063410 0.238046 0.412682 0.587318 0.761954 0.936590 0.073280 0.243968 0.414656 0.585344 0.756032 0.926720 0.083801 0.250281 0.416760 0.583240 0.749719 0.916199 0.094958 0.256975 0.418992 0.581008 0.743025 0.905042 0.106732 0.264039 0.421346 0.578654 0.735961 0.893268 0.119104 0.271463 0.423821 0.576179 0.728537 0.880896 0.132055 0.279233 0.426411 0.573589 0.720767 0.867945 0.145564 0.287338 0.429113 0.570887 0.712662 0.854436 0.159608 0.295765 0.431922 0.568078 0.704235 0.840392 0.174165 0.304499 0.434833 0.565167 0.695501 0.825835 0.189210 0.313526 0.437842 0.562158 0.686474 0.810790 0.204719 0.322831 0.440944 0.559056 0.677169 0.795281 0.220664 0.332398 0.444133 0.555867 0.667602 0.779336 0.237017 0.342210 0.447403 0.552597 0.657790 0.762983 0.253750 0.352250 0.450750 0.549250 0.647750 0.746250 0.270829 0.362498 0.454166 0.545834 0.637502 0.729171 0.288222 0.372933 0.457644 0.542356 0.627067 0.711778 0.305890 0.383534 0.461178 0.538822 0.616466 0.694110 0.323791 0.394275 0.464758 0.535242 0.605725 0.676209 0.341875 0.405125 0.468375 0.531625 0.594875 0.658125 0.360079 0.416047 0.472016 0.527984 0.583953 0.639921 0.378320 0.426992 0.475664 0.524336 0.573008 0.621680 0.396475 0.437885 0.479295 0.520705 0.562115 0.603525 0.414342 0.448605 0.482868 0.517132 0.551395 0.585658 0.431542 0.458925 0.486308 0.513692 0.541075 0.568458 0.447262 0.468357 0.489452 0.510548 0.531643 0.552738 0.459585 0.475751 0.491917 0.508083 0.524249 0.540415 0.464645 0.478787 0.492929 0.507071 0.521213 0.535355
-0.000000 -0.000000 -0.000000 -0.000000 -0.000000 -0.000000 0.392598 0.392598 0.392598 0.392598 0.392598 0.392598 0.784591 0.784591 0.784591 0.784591 0.784591 0.784591 1.175374 1.175374 1.175374 1.175374 1.175374 1.175374 1.564345 1.564345 1.564345 1.564345 1.564345 1.564345 1.950903 1.950903 1.950903 1.950903 1.950903 1.950903 2.334454 2.334454 2.334454 2.334454 2.334454 2.334454 2.714404 2.714404 2.714404 2.714404 2.714404 2.714404 3.090170 3.090170 3.090170 3.090170 3.090170 3.090170 3.461171 3.461171 3.461171 3.461171 3.461171 3.461171 3.826834 3.826834 3.826834 3.826834 3.826834 3.826834 4.186597 4.186597 4.186597 4.186597 4.186597 4.186597 4.539905 4.539905 4.539905 4.539905 4.539905 4.539905 4.886212 4.886212 4.886212 4.886212 4.886212 4.886212 5.224986 5.224986 5.224986 5.224986 5.224986 5.224986 5.555702 5.555702 5.555702 5.555702 5.555702 5.555702 5.877853 5.877853 5.877853 5.877853 5.877853 5.877853 6.190939 6.190939 6.190939 6.190939 6.190939 6.190939 6.494480 6.494480 6.494480 6.494480 6.494480 6.494480 6.788007 6.788007 6.788007 6.788007 6.788007 6.788007 7.071068 7.071068 7.071068 7.071068 7.071068 7.071068 7.343225 7.343225 7.343225 7.343225 7.343225 7.343225 7.604060 7.604060 7.604060 7.604060 7.604060 7.604060 7.853169 7.853169 7.853169 7.853169 7.853169 7.853169 8.090170 8.090170 8.090170 8.090170 8.090170 8.090170 8.314696 8.314696 8.314696 8.314696 8.314696 8.314696 8.526402 8.526402 8.526402 8.526402 8.526402 8.526402 8.724960 8.724960 8.724960 8.724960 8.724960 8.724960 8.910065 8.910065 8.910065 8.910065 8.910065 8.910065 9.081432 9.081432 9.081432 9.081432 9.081432 9.081432 9.238795 9.238795 9.238795 9.238795 9.238795 9.238795 9.381913 9.381913 9.381913 9.381913 9.381913 9.381913 9.510565 9.510565 9.510565 9.510565 9.510565 9.510565 9.624552 9.624552 9.624552 9.624552 9.624552 9.624552 9.723699 9.723699 9.723699 9.723699 9.723699 9.723699 9.807853 9.807853 9.807853 9.807853 9.807853 9.807853 9.876883 9.876883 9.876883 9.876883 9.876883 9.876883 9.930685 9.930685 9.930685 9.930685 9.930685 9.930685 9.969173 9.969173 9.969173 9.969173 9.969173 9.969173 9.992290 9.992290 9.992290 9.992290 9.992290 9.992290 10.000000 10.000000 10.000000 10.000000 10.000000 10.000000
0.000000 0.000000 0.000000 0.000000 0.000000 0.000000 0.000000 0.000000 0.000000 0.000000 0.000000 0.000000 0.000000 0.000000 0.000000 0.000000 0.000000 0.000000 0.000000 0.000000 0.000000 0.000000 0.000000 0.000000 0.000000 0.000000 0.000000 0.000000 0.000000 0.000000 0.000000 0.000000 0.000000 0.000000 0.000000 0.000000 0.000000 0.000000 0.000000 0.000000 0.000000 0.000000 0.000000 0.000000 0.000000 0.000000 0.000000 0.000000 0.000000 0.000000 0.000000 0.000000 0.000000 0.000000 0.000000 0.000000 0.000000 0.000000 0.000000 0.000000 0.000000 0.000000 0.000000 0.000000 0.000000 0.000000 0.000000 0.000000 0.000000 0.000000 0.000000 0.000000 0.000000 0.000000 0.000000 0.000000 0.000000 0.000000 0.000000 0.000000 0.000000 0.000000 0.000000 0.000000 0.000000 0.000000 0.000000 0.000000 0.000000 0.000000 0.000000 0.000000 0.000000 0.000000 0.000000 0.000000 0.000000 0.000000 0.000000 0.000000 0.000000 0.000000 0.000000 0.000000 0.000000 0.000000 0.000000 0.000000 0.000000 0.000000 0.000000 0.000000 0.000000 0.000000 0.000000 0.000000 0.000000 0.000000 0.000000 0.000000 0.000000 0.000000 0.000000 0.000000 0.000000 0.000000 0.000000 0.000000 0.000000 0.000000 0.000000 0.000000 0.000000 0.000000 0.000000 0.000000 0.000000 0.000000 0.000000 0.000000 0.000000 0.000000 0.000000 0.000000 0.000000 0.000000 0.000000 0.000000 0.000000 0.000000 0.000000 0.000000 0.000000 0.000000 0.000000 0.000000 0.000000 0.000000 0.000000 0.000000 0.000000 0.000000 0.000000 0.000000 0.000000 0.000000 0.000000 0.000000 0.000000 0.000000 0.000000 0.000000 0.000000 0.000000 0.000000 0.000000 0.000000 0.000000 0.000000 0.000000 0.000000 0.000000 0.000000 0.000000 0.000000 0.000000 0.000000 0.000000 0.000000 0.000000 0.000000 0.000000 0.000000 0.000000 0.000000 0.000000 0.000000 0.000000 0.000000 0.000000 0.000000 0.000000 0.000000 0.000000 0.000000 0.000000 0.000000 0.000000 0.000000 0.000000 0.000000 0.000000 0.000000 0.000000 0.000000 0.000000 0.000000 0.000000 0.000000 0.000000 0.000000 0.000000 0.000000 0.000000 0.000000 0.000000 0.000000 0.000000 0.000000 0.000000 0.000000 0.000000 0.000000 0.000000 0.000000 0.000000 0.000000 0.000000 0.000000 0.000000 0.000000 0.000000 0.000000 0.000000 0.000000 0.000000
0.124335 0.179484 0.214872 0.238423 0.252139 0.124145 0.179209 0.214543 0.238058 0.251753 0.123765 0.178660 0.213885 0.237328 0.250980 0.123196 0.177838 0.212901 0.236235 0.249824 0.122439 0.176744 0.211590 0.234780 0.248284 0.121494 0.175380 0.209956 0.232965 0.246364 0.120364 0.173748 0.208000 0.230794 0.244067 0.119050 0.171850 0.205727 0.228270 0.241397 0.117554 0.169689 0.203138 0.225396 0.238356 0.115879 0.167270 0.200240 0.222178 0.234951 0.114027 0.164595 0.197036 0.218620 0.231187 0.112002 0.161669 0.193530 0.214728 0.227070 0.109806 0.158497 0.189730 0.210509 0.222606 0.107443 0.155083 0.185641 0.205969 0.217802 0.104916 0.151434 0.181269 0.201115 0.212666 0.102231 0.147555 0.176622 0.195954 0.207206 0.099390 0.143452 0.171706 0.190497 0.201431 0.096400 0.139132 0.166531 0.184750 0.195351 0.093264 0.134602 0.161103 0.178724 0.188975 0.089988 0.129869 0.155433 0.172428 0.182313 0.086577 0.124942 0.149530 0.165872 0.175376 0.083037 0.119828 0.143403 0.159068 0.168177 0.079374 0.114536 0.137062 0.152027 0.160726 0.075594 0.109075 0.130519 0.144761 0.153037 0.071703 0.103455 0.123784 0.137282 0.145123 0.067710 0.097685 0.116871 0.129604 0.136998 0.063620 0.091776 0.109790 0.121740 0.128676 0.059443 0.085740 0.102557 0.113705 0.120172 0.055185 0.079588 0.095183 0.105515 0.111504 0.050856 0.073333 0.087686 0.097187 0.102688 0.046466 0.066989 0.080081 0.088737 0.093743 0.042026 0.060572 0.072387 0.080187 0.084690 0.037548 0.054099 0.064624 0.071557 0.075552 0.033048 0.047591 0.056815 0.062874 0.066354 0.028545 0.041075 0.048990 0.054165 0.057124 0.024066 0.034585 0.041181 0.045461 0.047893 0.019657 0.028168 0.033428 0.036794 0.038688 0.015391 0.021883 0.025758 0.028179 0.029530 0.011378 0.015716 0.018117 0.019598 0.020442 0.007371 0.009465 0.010651 0.011415 0.011880 