Variables="X","Y","Z","GAMMA"
ZONE T="WING" i=6,j=51,k=1, ZONETYPE=Ordered
DATAPACKING=BLOCK
VARLOCATION=([4]=CELLCENTERED)
-0.000000 0.200000 0.400000 0.600000 0.800000 1.000000 0.109970 0.306201 0.502432 0.698662 0.894893 1.091124 0.219832 0.412297 0.604762 0.797227 0.989693 1.182158 0.329477 0.518184 0.706891 0.895598 1.084305 1.273012 0.438796 0.623756 0.808716 0.993676 1.178636 1.363596 0.547683 0.728911 0.910139 1.091367 1.272594 1.453822 0.656029 0.833543 1.011058 1.188572 1.366086 1.543600 0.763728 0.937551 1.111373 1.285196 1.459019 1.632842 0.870673 1.040830 1.210987 1.381144 1.551302 1.721459 0.976758 1.143279 1.309801 1.476322 1.642843 1.809364 1.081880 1.244798 1.407716 1.570634 1.733552 1.896470 1.185934 1.345286 1.504637 1.663989 1.823340 1.982691 1.288818 1.444643 1.600468 1.756293 1.912118 2.067943 1.390430 1.542772 1.695114 1.847456 1.999799 2.152141 1.490669 1.639576 1.788482 1.937389 2.086295 2.235202 1.589438 1.734959 1.880480 2.026001 2.171522 2.317044 1.686638 1.828827 1.971017 2.113206 2.255396 2.397586 1.782173 1.921088 2.060003 2.198918 2.337833 2.476748 1.875950 2.011651 2.147351 2.283052 2.418753 2.554454 1.967875 2.100425 2.232975 2.365525 2.498075 2.630625 2.057858 2.187324 2.316790 2.446256 2.575721 2.705187 2.145811 2.272262 2.398713 2.525164 2.651615 2.778066 2.231645 2.355155 2.478664 2.602173 2.725682 2.849191 2.315278 2.435920 2.556563 2.677205 2.797848 2.918491 2.396625 2.514480 2.632334 2.750188 2.868043 2.985897 2.475607 2.590755 2.705902 2.821049 2.936196 3.051343 2.552147 2.664670 2.777194 2.889718 3.002242 3.114765 2.626167 2.736154 2.846140 2.956127 3.066114 3.176100 2.697596 2.805134 2.912673 3.020211 3.127750 3.235288 2.766362 2.871544 2.976725 3.081907 3.187088 3.292269 2.832399 2.935317 3.038235 3.141153 3.244071 3.346989 2.895640 2.996391 3.097141 3.197891 3.298642 3.399392 2.956024 3.054705 3.153385 3.252066 3.350746 3.449427 3.013490 3.110201 3.206912 3.303623 3.400334 3.497045 3.067983 3.162826 3.257669 3.352512 3.447356 3.542199 3.119447 3.212527 3.305606 3.398685 3.491764 3.584844 3.167834 3.259254 3.350675 3.442096 3.533517 3.624937 3.213094 3.302963 3.392832 3.482702 3.572571 3.662441 3.255183 3.343609 3.432036 3.520463 3.608890 3.697317 3.294059 3.381153 3.468248 3.555342 3.642436 3.729531 3.329685 3.415558 3.501431 3.587304 3.673178 3.759051 3.362024 3.446789 3.531554 3.616319 3.701083 3.785848 3.391046 3.474816 3.558586 3.642356 3.726126 3.809896 3.416721 3.499611 3.582501 3.665391 3.748281 3.831171 3.439025 3.521150 3.603276 3.685401 3.767527 3.849652 3.457934 3.539412 3.620889 3.702366 3.783844 3.865321 3.473431 3.554377 3.635323 3.716270 3.797216 3.878162 3.485500 3.566033 3.646565 3.727098 3.807630 3.888163 3.494129 3.574366 3.654603 3.734840 3.815076 3.895313 3.499310 3.579369 3.659429 3.739488 3.819547 3.899606 3.501038 3.581038 3.661038 3.741038 3.821038 3.901038
-0.000000 -0.000000 -0.000000 -0.000000 -0.000000 -0.000000 0.157054 0.157054 0.157054 0.157054 0.157054 0.157054 0.313953 0.313953 0.313953 0.313953 0.313953 0.313953 0.470542 0.470542 0.470542 0.470542 0.470542 0.470542 0.626666 0.626666 0.626666 0.626666 0.626666 0.626666 0.782172 0.782172 0.782172 0.782172 0.782172 0.782172 0.936907 0.936907 0.936907 0.936907 0.936907 0.936907 1.090716 1.090716 1.090716 1.090716 1.090716 1.090716 1.243449 1.243449 1.243449 1.243449 1.243449 1.243449 1.394956 1.394956 1.394956 1.394956 1.394956 1.394956 1.545085 1.545085 1.545085 1.545085 1.545085 1.545085 1.693690 1.693690 1.693690 1.693690 1.693690 1.693690 1.840623 1.840623 1.840623 1.840623 1.840623 1.840623 1.985739 1.985739 1.985739 1.985739 1.985739 1.985739 2.128896 2.128896 2.128896 2.128896 2.128896 2.128896 2.269952 2.269952 2.269952 2.269952 2.269952 2.269952 2.408768 2.408768 2.408768 2.408768 2.408768 2.408768 2.545207 2.545207 2.545207 2.545207 2.545207 2.545207 2.679134 2.679134 2.679134 2.679134 2.679134 2.679134 2.810417 2.810417 2.810417 2.810417 2.810417 2.810417 2.938926 2.938926 2.938926 2.938926 2.938926 2.938926 3.064535 3.064535 3.064535 3.064535 3.064535 3.064535 3.187120 3.187120 3.187120 3.187120 3.187120 3.187120 3.306559 3.306559 3.306559 3.306559 3.306559 3.306559 3.422736 3.422736 3.422736 3.422736 3.422736 3.422736 3.535534 3.535534 3.535534 3.535534 3.535534 3.535534 3.644843 3.644843 3.644843 3.644843 3.644843 3.644843 3.750555 3.750555 3.750555 3.750555 3.750555 3.750555 3.852566 3.852566 3.852566 3.852566 3.852566 3.852566 3.950775 3.950775 3.950775 3.950775 3.950775 3.950775 4.045085 4.045085 4.045085 4.045085 4.045085 4.045085 4.135403 4.135403 4.135403 4.135403 4.135403 4.135403 4.221640 4.221640 4.221640 4.221640 4.221640 4.221640 4.303710 4.303710 4.303710 4.303710 4.303710 4.303710 4.381533 4.381533 4.381533 4.381533 4.381533 4.381533 4.455033 4.455033 4.455033 4.455033 4.455033 4.455033 4.524135 4.524135 4.524135 4.524135 4.524135 4.524135 4.588773 4.588773 4.588773 4.588773 4.588773 4.588773 4.648882 4.648882 4.648882 4.648882 4.648882 4.648882 4.704404 4.704404 4.704404 4.704404 4.704404 4.704404 4.755283 4.755283 4.755283 4.755283 4.755283 4.755283 4.801468 4.801468 4.801468 4.801468 4.801468 4.801468 4.842916 4.842916 4.842916 4.842916 4.842916 4.842916 4.879584 4.879584 4.879584 4.879584 4.879584 4.879584 4.911436 4.911436 4.911436 4.911436 4.911436 4.911436 4.938442 4.938442 4.938442 4.938442 4.938442 4.938442 4.960574 4.960574 4.960574 4.960574 4.960574 4.960574 4.977810 4.977810 4.977810 4.977810 4.977810 4.977810 4.990134 4.990134 4.990134 4.990134 4.990134 4.990134 4.997533 4.997533 4.997533 4.997533 4.997533 4.997533 5.000000 5.000000 5.000000 5.000000 5.000000 5.000000
0.000000 0.000000 0.000000 0.000000 0.000000 0.000000 0.000000 0.000000 0.000000 0.000000 0.000000 0.000000 0.000000 0.000000 0.000000 0.000000 0.000000 0.000000 0.000000 0.000000 0.000000 0.000000 0.000000 0.000000 0.000000 0.000000 0.000000 0.000000 0.000000 0.000000 0.000000 0.000000 0.000000 0.000000 0.000000 0.000000 0.000000 0.000000 0.000000 0.000000 0.000000 0.000000 0.000000 0.000000 0.000000 0.000000 0.000000 0.000000 0.000000 0.000000 0.000000 0.000000 0.000000 0.000000 0.000000 0.000000 0.000000 0.000000 0.000000 0.000000 0.000000 0.000000 0.000000 0.000000 0.000000 0.000000 0.000000 0.000000 0.000000 0.000000 0.000000 0.000000 0.000000 0.000000 0.000000 0.000000 0.000000 0.000000 0.000000 0.000000 0.000000 0.000000 0.000000 0.000000 0.000000 0.000000 0.000000 0.000000 0.000000 0.000000 0.000000 0.000000 0.000000 0.000000 0.000000 0.000000 0.000000 0.000000 0.000000 0.000000 0.000000 0.000000 0.000000 0.000000 0.000000 0.000000 0.000000 0.000000 0.000000 0.000000 0.000000 0.000000 0.000000 0.000000 0.000000 0.000000 0.000000 0.000000 0.000000 0.000000 0.000000 0.000000 0.000000 0.000000 0.000000 0.000000 0.000000 0.000000 0.000000 0.000000 0.000000 0.000000 0.000000 0.000000 0.000000 0.000000 0.000000 0.000000 0.000000 0.000000 0.000000 0.000000 0.000000 0.000000 0.000000 0.000000 0.000000 0.000000 0.000000 0.000000 0.000000 0.000000 0.000000 0.000000 0.000000 0.000000 0.000000 0.000000 0.000000 0.000000 0.000000 0.000000 0.000000 0.000000 0.000000 0.000000 0.000000 0.000000 0.000000 0.000000 0.000000 0.000000 0.000000 0.000000 0.000000 0.000000 0.000000 0.000000 0.000000 0.000000 0.000000 0.000000 0.000000 0.000000 0.000000 0.000000 0.000000 0.000000 0.000000 0.000000 0.000000 0.000000 0.000000 0.000000 0.000000 0.000000 0.000000 0.000000 0.000000 0.000000 0.000000 0.000000 0.000000 0.000000 0.000000 0.000000 0.000000 0.000000 0.000000 0.000000 0.000000 0.000000 0.000000 0.000000 0.000000 0.000000 0.000000 0.000000 0.000000 0.000000 0.000000 0.000000 0.000000 0.000000 0.000000 0.000000 0.000000 0.000000 0.000000 0.000000 0.000000 0.000000 0.000000 0.000000 0.000000 0.000000 0.000000 0.000000 0.000000 0.000000 0.000000 0.000000 0.000000 0.000000 0.000000 0.000000 0.000000 0.000000 0.000000 0.000000 0.000000 0.000000 0.000000 0.000000 0.000000 0.000000 0.000000 0.000000 0.000000 0.000000 0.000000 0.000000 0.000000 0.000000 0.000000 0.000000 0.000000 0.000000 0.000000 0.000000 0.000000 0.000000 0.000000 0.000000 0.000000 0.000000 0.000000 0.000000 0.000000 0.000000 0.000000 0.000000 0.000000 0.000000 0.000000 0.000000 0.000000 0.000000 0.000000 0.000000 0.000000 0.000000 0.000000 0.000000 0.000000 0.000000 0.000000 0.000000 0.000000 0.000000 0.000000 0.000000 0.000000 0.000000 0.000000 0.000000
0.082772 0.128013 0.161215 0.185737 0.201449 0.091962 0.137023 0.168604 0.191131 0.204862 0.097035 0.142542 0.173368 0.194787 0.207616 0.099918 0.145783 0.176234 0.197075 0.209460 0.101513 0.147573 0.177806 0.198322 0.210458 0.102287 0.148392 0.178455 0.198754 0.210723 0.102503 0.148525 0.178415 0.198533 0.210369 0.102319 0.148149 0.177839 0.197780 0.209493 0.101836 0.147379 0.176835 0.196589 0.208178 0.101120 0.146296 0.175482 0.195033 0.206492 0.100218 0.144960 0.173841 0.193173 0.204495 0.099167 0.143417 0.171963 0.191058 0.202234 0.097993 0.141703 0.169886 0.188729 0.199752 0.096719 0.139847 0.167644 0.186221 0.197084 0.095362 0.137875 0.165265 0.183565 0.194261 0.093938 0.135806 0.162775 0.180786 0.191310 0.092459 0.133661 0.160192 0.177907 0.188254 0.090937 0.131453 0.157537 0.174947 0.185114 0.089382 0.129198 0.154825 0.171925 0.181908 0.087802 0.126907 0.152070 0.168856 0.178652 0.086204 0.124591 0.149284 0.165753 0.175360 0.084596 0.122258 0.146479 0.162627 0.172044 0.082983 0.119918 0.143664 0.159489 0.168714 0.081370 0.117577 0.140845 0.156346 0.165378 0.079762 0.115240 0.138031 0.153206 0.162042 0.078161 0.112912 0.135225 0.150072 0.158712 0.076570 0.110597 0.132430 0.146948 0.155389 0.074991 0.108295 0.129647 0.143833 0.152072 0.073425 0.106007 0.126876 0.140724 0.148757 0.071871 0.103731 0.124112 0.137616 0.145437 0.070328 0.101463 0.121349 0.134498 0.142097 0.068792 0.099196 0.118574 0.131355 0.138719 0.067258 0.096920 0.115772 0.128164 0.135275 0.065720 0.094621 0.112920 0.124894 0.131729 0.064168 0.092279 0.109989 0.121505 0.128031 0.062590 0.089870 0.106939 0.117943 0.124120 0.060969 0.087361 0.103718 0.114141 0.119916 0.059285 0.084708 0.100260 0.110014 0.115327 0.057513 0.081857 0.096483 0.105463 0.110252 0.055620 0.078738 0.092283 0.100377 0.104587 0.053563 0.075256 0.087541 0.094646 0.098246 0.051284 0.071291 0.082128 0.088179 0.091171 0.048700 0.066694 0.075929 0.080922 0.083345 0.045691 0.061303 0.068872 0.072874 0.074793 0.042077 0.054982 0.060955 0.064086 0.065578 0.037620 0.047689 0.052250 0.054646 0.055786 0.032080 0.039500 0.042882 0.044674 0.045525 0.025404 0.030606 0.033021 0.034311 0.034925 0.017907 0.021307 0.022908 0.023768 0.024178 0.010452 0.012383 0.013297 0.013789 0.014024 