Variables="X","Y","Z","GAMMA"
ZONE T="WING" i=6,j=51,k=1, ZONETYPE=Ordered
DATAPACKING=BLOCK
VARLOCATION=([4]=CELLCENTERED)
-0.000000 0.200000 0.400000 0.600000 0.800000 1.000000 0.109970 0.306200 0.502431 0.698661 0.894891 1.091121 0.219832 0.412295 0.604759 0.797222 0.989685 1.182148 0.329477 0.518180 0.706883 0.895586 1.084288 1.272991 0.438796 0.623749 0.808702 0.993655 1.178608 1.363561 0.547683 0.728900 0.910117 1.091334 1.272551 1.453768 0.656029 0.833528 1.011027 1.188526 1.366025 1.543524 0.763728 0.937530 1.111333 1.285136 1.458938 1.632741 0.870673 1.040804 1.210936 1.381067 1.551199 1.721331 0.976758 1.143248 1.309737 1.476227 1.642716 1.809206 1.081880 1.244760 1.407640 1.570520 1.733400 1.896280 1.185934 1.345241 1.504548 1.663855 1.823162 1.982469 1.288818 1.444592 1.600365 1.756139 1.911912 2.067686 1.390430 1.542713 1.694997 1.847281 1.999565 2.151848 1.490669 1.639510 1.788351 1.937191 2.086032 2.234873 1.589438 1.734886 1.880334 2.025782 2.171230 2.316678 1.686638 1.828747 1.970856 2.112965 2.255074 2.397184 1.782173 1.921001 2.059828 2.198655 2.337482 2.476310 1.875950 2.011556 2.147162 2.282767 2.418373 2.553979 1.967875 2.100323 2.232771 2.365219 2.497667 2.630115 2.057858 2.187215 2.316572 2.445929 2.575285 2.704642 2.145811 2.272146 2.398482 2.524817 2.651152 2.777488 2.231645 2.355032 2.478419 2.601806 2.725193 2.848580 2.315278 2.435792 2.556306 2.676820 2.797334 2.917848 2.396625 2.514345 2.632065 2.749785 2.867504 2.985224 2.475607 2.590614 2.705621 2.820628 2.935635 3.050642 2.552147 2.664525 2.776903 2.889281 3.001659 3.114037 2.626167 2.736003 2.845839 2.955675 3.065511 3.175347 2.697596 2.804979 2.912362 3.019744 3.127127 3.234510 2.766362 2.871384 2.976405 3.081427 3.186448 3.291470 2.832399 2.935153 3.037907 3.140661 3.243414 3.346168 2.895640 2.996223 3.096805 3.197388 3.297970 3.398552 2.956024 3.054533 3.153042 3.251552 3.350061 3.448570 3.013490 3.110027 3.206563 3.303099 3.399636 3.496172 3.067983 3.162648 3.257314 3.351980 3.446646 3.541312 3.119447 3.212347 3.305246 3.398145 3.491044 3.583943 3.167834 3.259072 3.350310 3.441549 3.532787 3.624026 3.213094 3.302779 3.392464 3.482149 3.571834 3.661519 3.255183 3.343423 3.431664 3.519904 3.608145 3.696386 3.294059 3.380966 3.467872 3.554778 3.641685 3.728591 3.329685 3.415369 3.501053 3.586737 3.672421 3.758105 3.362024 3.446599 3.531173 3.615747 3.700322 3.784896 3.391046 3.474625 3.558203 3.641782 3.725360 3.808939 3.416721 3.499419 3.582117 3.664814 3.747512 3.830210 3.439025 3.520957 3.602890 3.684822 3.766755 3.848687 3.457934 3.539218 3.620502 3.701785 3.783069 3.864353 3.473431 3.554183 3.634935 3.715687 3.796440 3.877192 3.485500 3.565838 3.646176 3.726514 3.806852 3.887191 3.494129 3.574171 3.654213 3.734256 3.814298 3.894340 3.499310 3.579175 3.659039 3.738903 3.818768 3.898632 3.501038 3.580843 3.660648 3.740453 3.820258 3.900063
-0.000000 -0.000000 -0.000000 -0.000000 -0.000000 -0.000000 0.157054 0.157054 0.157054 0.157054 0.157054 0.157054 0.313953 0.313953 0.313953 0.313953 0.313953 0.313953 0.470542 0.470542 0.470542 0.470542 0.470542 0.470542 0.626666 0.626666 0.626666 0.626666 0.626666 0.626666 0.782172 0.782172 0.782172 0.782172 0.782172 0.782172 0.936907 0.936907 0.936907 0.936907 0.936907 0.936907 1.090716 1.090716 1.090716 1.090716 1.090716 1.090716 1.243449 1.243449 1.243449 1.243449 1.243449 1.243449 1.394956 1.394956 1.394956 1.394956 1.394956 1.394956 1.545085 1.545085 1.545085 1.545085 1.545085 1.545085 1.693690 1.693690 1.693690 1.693690 1.693690 1.693690 1.840623 1.840623 1.840623 1.840623 1.840623 1.840623 1.985739 1.985739 1.985739 1.985739 1.985739 1.985739 2.128896 2.128896 2.128896 2.128896 2.128896 2.128896 2.269952 2.269952 2.269952 2.269952 2.269952 2.269952 2.408768 2.408768 2.408768 2.408768 2.408768 2.408768 2.545207 2.545207 2.545207 2.545207 2.545207 2.545207 2.679134 2.679134 2.679134 2.679134 2.679134 2.679134 2.810417 2.810417 2.810417 2.810417 2.810417 2.810417 2.938926 2.938926 2.938926 2.938926 2.938926 2.938926 3.064535 3.064535 3.064535 3.064535 3.064535 3.064535 3.187120 3.187120 3.187120 3.187120 3.187120 3.187120 3.306559 3.306559 3.306559 3.306559 3.306559 3.306559 3.422736 3.422736 3.422736 3.422736 3.422736 3.422736 3.535534 3.535534 3.535534 3.535534 3.535534 3.535534 3.644843 3.644843 3.644843 3.644843 3.644843 3.644843 3.750555 3.750555 3.750555 3.750555 3.750555 3.750555 3.852566 3.852566 3.852566 3.852566 3.852566 3.852566 3.950775 3.950775 3.950775 3.950775 3.950775 3.950775 4.045085 4.045085 4.045085 4.045085 4.045085 4.045085 4.135403 4.135403 4.135403 4.135403 4.135403 4.135403 4.221640 4.221640 4.221640 4.221640 4.221640 4.221640 4.303710 4.303710 4.303710 4.303710 4.303710 4.303710 4.381533 4.381533 4.381533 4.381533 4.381533 4.381533 4.455033 4.455033 4.455033 4.455033 4.455033 4.455033 4.524135 4.524135 4.524135 4.524135 4.524135 4.524135 4.588773 4.588773 4.588773 4.588773 4.588773 4.588773 4.648882 4.648882 4.648882 4.648882 4.648882 4.648882 4.704404 4.704404 4.704404 4.704404 4.704404 4.704404 4.755283 4.755283 4.755283 4.755283 4.755283 4.755283 4.801468 4.801468 4.801468 4.801468 4.801468 4.801468 4.842916 4.842916 4.842916 4.842916 4.842916 4.842916 4.879584 4.879584 4.879584 4.879584 4.879584 4.879584 4.911436 4.911436 4.911436 4.911436 4.911436 4.911436 4.938442 4.938442 4.938442 4.938442 4.938442 4.938442 4.960574 4.960574 4.960574 4.960574 4.960574 4.960574 4.977810 4.977810 4.977810 4.977810 4.977810 4.977810 4.990134 4.990134 4.990134 4.990134 4.990134 4.990134 4.997533 4.997533 4.997533 4.997533 4.997533 4.997533 5.000000 5.000000 5.000000 5.000000 5.000000 5.000000
0.000000 -0.000000 -0.000000 -0.000000 -0.000000 -0.000000 0.000000 0.000430 0.000861 0.001291 0.001721 0.002152 0.000000 0.000844 0.001687 0.002531 0.003375 0.004218 0.000000 0.001240 0.002480 0.003719 0.004959 0.006199 0.000000 0.001618 0.003237 0.004855 0.006473 0.008092 0.000000 0.001979 0.003958 0.005938 0.007917 0.009896 0.000000 0.002322 0.004644 0.006966 0.009288 0.011611 0.000000 0.002647 0.005294 0.007941 0.010588 0.013235 0.000000 0.002954 0.005908 0.008862 0.011816 0.014770 0.000000 0.003243 0.006486 0.009730 0.012973 0.016216 0.000000 0.003514 0.007029 0.010543 0.014058 0.017572 0.000000 0.003768 0.007536 0.011304 0.015072 0.018840 0.000000 0.004004 0.008009 0.012013 0.016017 0.020021 0.000000 0.004223 0.008447 0.012670 0.016893 0.021117 0.000000 0.004426 0.008851 0.013277 0.017702 0.022128 0.000000 0.004611 0.009223 0.013834 0.018446 0.023057 0.000000 0.004781 0.009563 0.014344 0.019125 0.023907 0.000000 0.004936 0.009871 0.014807 0.019743 0.024678 0.000000 0.005075 0.010150 0.015225 0.020300 0.025375 0.000000 0.005200 0.010400 0.015600 0.020800 0.026000 0.000000 0.005311 0.010622 0.015933 0.021245 0.026556 0.000000 0.005409 0.010818 0.016227 0.021636 0.027045 0.000000 0.005494 0.010989 0.016483 0.021978 0.027472 0.000000 0.005568 0.011136 0.016704 0.022272 0.027839 0.000000 0.005630 0.011260 0.016890 0.022521 0.028151 0.000000 0.005682 0.011364 0.017046 0.022728 0.028410 0.000000 0.005724 0.011448 0.017172 0.022896 0.028620 0.000000 0.005757 0.011514 0.017271 0.023028 0.028786 0.000000 0.005782 0.011564 0.017346 0.023128 0.028910 0.000000 0.005799 0.011598 0.017398 0.023197 0.028996 0.000000 0.005810 0.011619 0.017429 0.023239 0.029049 0.000000 0.005814 0.011628 0.017443 0.023257 0.029071 0.000000 0.005813 0.011627 0.017440 0.023254 0.029067 0.000000 0.005808 0.011616 0.017424 0.023232 0.029040 0.000000 0.005799 0.011597 0.017396 0.023195 0.028993 0.000000 0.005786 0.011572 0.017358 0.023145 0.028931 0.000000 0.005771 0.011542 0.017313 0.023084 0.028856 0.000000 0.005754 0.011508 0.017262 0.023016 0.028771 0.000000 0.005736 0.011472 0.017207 0.022943 0.028679 0.000000 0.005717 0.011434 0.017150 0.022867 0.028584 0.000000 0.005697 0.011395 0.017092 0.022790 0.028487 0.000000 0.005678 0.011357 0.017035 0.022714 0.028392 0.000000 0.005660 0.011320 0.016981 0.022641 0.028301 0.000000 0.005643 0.011286 0.016929 0.022572 0.028215 0.000000 0.005627 0.011255 0.016882 0.022510 0.028137 0.000000 0.005614 0.011227 0.016841 0.022455 0.028069 0.000000 0.005602 0.011204 0.016806 0.022408 0.028010 0.000000 0.005593 0.011186 0.016778 0.022371 0.027964 0.000000 0.005586 0.011172 0.016758 0.022344 0.027930 0.000000 0.005582 0.011164 0.016746 0.022328 0.027909 0.000000 0.005581 0.011161 0.016742 0.022322 0.027903
0.099648 0.153439 0.192552 0.221222 0.239484 0.109901 0.163180 0.200198 0.226414 0.242299 0.114955 0.168366 0.204253 0.229013 0.243752 0.117232 0.170597 0.205753 0.229648 0.243758 0.117869 0.170940 0.205515 0.228817 0.242511 0.117458 0.170021 0.204047 0.226864 0.240230 0.116341 0.168219 0.201674 0.224039 0.237111 0.114726 0.165776 0.198620 0.220530 0.233315 0.112750 0.162855 0.195042 0.216484 0.228981 0.110506 0.159573 0.191061 0.212017 0.224219 0.108062 0.156019 0.186773 0.207225 0.219124 0.105471 0.152262 0.182252 0.202185 0.213776 0.102772 0.148356 0.177561 0.196964 0.208242 0.100000 0.144347 0.172752 0.191616 0.202577 0.097181 0.140273 0.167868 0.186189 0.196831 0.094338 0.136166 0.162946 0.180722 0.191044 0.091490 0.132053 0.158018 0.175250 0.185254 0.088653 0.127956 0.153111 0.169802 0.179489 0.085842 0.123895 0.148248 0.164403 0.173777 0.083066 0.119887 0.143447 0.159074 0.168139 0.080337 0.115946 0.138726 0.153833 0.162595 0.077663 0.112083 0.134099 0.148695 0.157159 0.075051 0.108308 0.129576 0.143673 0.151844 0.072505 0.104629 0.125166 0.138775 0.146661 0.070031 0.101051 0.120878 0.134010 0.141617 0.067631 0.097580 0.116714 0.129382 0.136716 0.065309 0.094217 0.112678 0.124893 0.131960 0.063063 0.090964 0.108771 0.120544 0.127349 0.060896 0.087821 0.104990 0.116331 0.122879 0.058806 0.084784 0.101332 0.112249 0.118543 0.056789 0.081849 0.097790 0.108288 0.114329 0.054844 0.079010 0.094353 0.104435 0.110221 0.052964 0.076257 0.091009 0.100672 0.106198 0.051144 0.073577 0.087738 0.096974 0.102231 0.049374 0.070956 0.084516 0.093310 0.098282 0.047644 0.068373 0.081313 0.089639 0.094303 0.045942 0.065801 0.078090 0.085910 0.090238 0.044250 0.063209 0.074797 0.082062 0.086017 0.042549 0.060556 0.071374 0.078020 0.081565 0.040814 0.057788 0.067744 0.073704 0.076808 0.039013 0.054838 0.063821 0.069033 0.071680 0.037104 0.051618 0.059512 0.063939 0.066135 0.035026 0.048022 0.054731 0.058379 0.060156 0.032692 0.043931 0.049423 0.052346 0.053754 0.029975 0.039248 0.043580 0.045868 0.046963 0.026706 0.033936 0.037246 0.038998 0.039835 0.022712 0.028042 0.030498 0.031809 0.032436 0.017952 0.021691 0.023446 0.024391 0.024843 0.012639 0.015085 0.016249 0.016879 0.017181 0.007374 0.008763 0.009428 0.009789 0.009962 