Variables="X","Y","Z","GAMMA"
ZONE T="WING" i=6,j=51,k=1, ZONETYPE=Ordered
DATAPACKING=BLOCK
VARLOCATION=([4]=CELLCENTERED)
-0.000000 0.200000 0.400000 0.600000 0.800000 1.000000 0.109970 0.306201 0.502432 0.698662 0.894893 1.091124 0.219832 0.412297 0.604762 0.797227 0.989693 1.182158 0.329477 0.518184 0.706891 0.895598 1.084305 1.273012 0.438796 0.623756 0.808716 0.993676 1.178636 1.363596 0.547683 0.728911 0.910139 1.091367 1.272594 1.453822 0.656029 0.833543 1.011058 1.188572 1.366086 1.543600 0.763728 0.937551 1.111373 1.285196 1.459019 1.632842 0.870673 1.040830 1.210987 1.381144 1.551302 1.721459 0.976758 1.143279 1.309801 1.476322 1.642843 1.809364 1.081880 1.244798 1.407716 1.570634 1.733552 1.896470 1.185934 1.345286 1.504637 1.663989 1.823340 1.982691 1.288818 1.444643 1.600468 1.756293 1.912118 2.067943 1.390430 1.542772 1.695114 1.847456 1.999799 2.152141 1.490669 1.639576 1.788482 1.937389 2.086295 2.235202 1.589438 1.734959 1.880480 2.026001 2.171522 2.317044 1.686638 1.828827 1.971017 2.113206 2.255396 2.397586 1.782173 1.921088 2.060003 2.198918 2.337833 2.476748 1.875950 2.011651 2.147351 2.283052 2.418753 2.554454 1.967875 2.100425 2.232975 2.365525 2.498075 2.630625 2.057858 2.187324 2.316790 2.446256 2.575721 2.705187 2.145811 2.272262 2.398713 2.525164 2.651615 2.778066 2.231645 2.355155 2.478664 2.602173 2.725682 2.849191 2.315278 2.435920 2.556563 2.677205 2.797848 2.918491 2.396625 2.514480 2.632334 2.750188 2.868043 2.985897 2.475607 2.590755 2.705902 2.821049 2.936196 3.051343 2.552147 2.664670 2.777194 2.889718 3.002242 3.114765 2.626167 2.736154 2.846140 2.956127 3.066114 3.176100 2.697596 2.805134 2.912673 3.020211 3.127750 3.235288 2.766362 2.871544 2.976725 3.081907 3.187088 3.292269 2.832399 2.935317 3.038235 3.141153 3.244071 3.346989 2.895640 2.996391 3.097141 3.197891 3.298642 3.399392 2.956024 3.054705 3.153385 3.252066 3.350746 3.449427 3.013490 3.110201 3.206912 3.303623 3.400334 3.497045 3.067983 3.162826 3.257669 3.352512 3.447356 3.542199 3.119447 3.212527 3.305606 3.398685 3.491764 3.584844 3.167834 3.259254 3.350675 3.442096 3.533517 3.624937 3.213094 3.302963 3.392832 3.482702 3.572571 3.662441 3.255183 3.343609 3.432036 3.520463 3.608890 3.697317 3.294059 3.381153 3.468248 3.555342 3.642436 3.729531 3.329685 3.415558 3.501431 3.587304 3.673178 3.759051 3.362024 3.446789 3.531554 3.616319 3.701083 3.785848 3.391046 3.474816 3.558586 3.642356 3.726126 3.809896 3.416721 3.499611 3.582501 3.665391 3.748281 3.831171 3.439025 3.521150 3.603276 3.685401 3.767527 3.849652 3.457934 3.539412 3.620889 3.702366 3.783844 3.865321 3.473431 3.554377 3.635323 3.716270 3.797216 3.878162 3.485500 3.566033 3.646565 3.727098 3.807630 3.888163 3.494129 3.574366 3.654603 3.734840 3.815076 3.895313 3.499310 3.579369 3.659429 3.739488 3.819547 3.899606 3.501038 3.581038 3.661038 3.741038 3.821038 3.901038
-0.000000 -0.000000 -0.000000 -0.000000 -0.000000 -0.000000 0.157054 0.157054 0.157054 0.157054 0.157054 0.157054 0.313953 0.313953 0.313953 0.313953 0.313953 0.313953 0.470542 0.470542 0.470542 0.470542 0.470542 0.470542 0.626666 0.626666 0.626666 0.626666 0.626666 0.626666 0.782172 0.782172 0.782172 0.782172 0.782172 0.782172 0.936907 0.936907 0.936907 0.936907 0.936907 0.936907 1.090716 1.090716 1.090716 1.090716 1.090716 1.090716 1.243449 1.243449 1.243449 1.243449 1.243449 1.243449 1.394956 1.394956 1.394956 1.394956 1.394956 1.394956 1.545085 1.545085 1.545085 1.545085 1.545085 1.545085 1.693690 1.693690 1.693690 1.693690 1.693690 1.693690 1.840623 1.840623 1.840623 1.840623 1.840623 1.840623 1.985739 1.985739 1.985739 1.985739 1.985739 1.985739 2.128896 2.128896 2.128896 2.128896 2.128896 2.128896 2.269952 2.269952 2.269952 2.269952 2.269952 2.269952 2.408768 2.408768 2.408768 2.408768 2.408768 2.408768 2.545207 2.545207 2.545207 2.545207 2.545207 2.545207 2.679134 2.679134 2.679134 2.679134 2.679134 2.679134 2.810417 2.810417 2.810417 2.810417 2.810417 2.810417 2.938926 2.938926 2.938926 2.938926 2.938926 2.938926 3.064535 3.064535 3.064535 3.064535 3.064535 3.064535 3.187120 3.187120 3.187120 3.187120 3.187120 3.187120 3.306559 3.306559 3.306559 3.306559 3.306559 3.306559 3.422736 3.422736 3.422736 3.422736 3.422736 3.422736 3.535534 3.535534 3.535534 3.535534 3.535534 3.535534 3.644843 3.644843 3.644843 3.644843 3.644843 3.644843 3.750555 3.750555 3.750555 3.750555 3.750555 3.750555 3.852566 3.852566 3.852566 3.852566 3.852566 3.852566 3.950775 3.950775 3.950775 3.950775 3.950775 3.950775 4.045085 4.045085 4.045085 4.045085 4.045085 4.045085 4.135403 4.135403 4.135403 4.135403 4.135403 4.135403 4.221640 4.221640 4.221640 4.221640 4.221640 4.221640 4.303710 4.303710 4.303710 4.303710 4.303710 4.303710 4.381533 4.381533 4.381533 4.381533 4.381533 4.381533 4.455033 4.455033 4.455033 4.455033 4.455033 4.455033 4.524135 4.524135 4.524135 4.524135 4.524135 4.524135 4.588773 4.588773 4.588773 4.588773 4.588773 4.588773 4.648882 4.648882 4.648882 4.648882 4.648882 4.648882 4.704404 4.704404 4.704404 4.704404 4.704404 4.704404 4.755283 4.755283 4.755283 4.755283 4.755283 4.755283 4.801468 4.801468 4.801468 4.801468 4.801468 4.801468 4.842916 4.842916 4.842916 4.842916 4.842916 4.842916 4.879584 4.879584 4.879584 4.879584 4.879584 4.879584 4.911436 4.911436 4.911436 4.911436 4.911436 4.911436 4.938442 4.938442 4.938442 4.938442 4.938442 4.938442 4.960574 4.960574 4.960574 4.960574 4.960574 4.960574 4.977810 4.977810 4.977810 4.977810 4.977810 4.977810 4.990134 4.990134 4.990134 4.990134 4.990134 4.990134 4.997533 4.997533 4.997533 4.997533 4.997533 4.997533 5.000000 5.000000 5.000000 5.000000 5.000000 5.000000
0.000000 0.000000 0.000000 0.000000 0.000000 0.000000 0.000000 0.000000 0.000000 0.000000 0.000000 0.000000 0.000000 0.000000 0.000000 0.000000 0.000000 0.000000 0.000000 0.000000 0.000000 0.000000 0.000000 0.000000 0.000000 0.000000 0.000000 0.000000 0.000000 0.000000 0.000000 0.000000 0.000000 0.000000 0.000000 0.000000 0.000000 0.000000 0.000000 0.000000 0.000000 0.000000 0.000000 0.000000 0.000000 0.000000 0.000000 0.000000 0.000000 0.000000 0.000000 0.000000 0.000000 0.000000 0.000000 0.000000 0.000000 0.000000 0.000000 0.000000 0.000000 0.000000 0.000000 0.000000 0.000000 0.000000 0.000000 0.000000 0.000000 0.000000 0.000000 0.000000 0.000000 0.000000 0.000000 0.000000 0.000000 0.000000 0.000000 0.000000 0.000000 0.000000 0.000000 0.000000 0.000000 0.000000 0.000000 0.000000 0.000000 0.000000 0.000000 0.000000 0.000000 0.000000 0.000000 0.000000 0.000000 0.000000 0.000000 0.000000 0.000000 0.000000 0.000000 0.000000 0.000000 0.000000 0.000000 0.000000 0.000000 0.000000 0.000000 0.000000 0.000000 0.000000 0.000000 0.000000 0.000000 0.000000 0.000000 0.000000 0.000000 0.000000 0.000000 0.000000 0.000000 0.000000 0.000000 0.000000 0.000000 0.000000 0.000000 0.000000 0.000000 0.000000 0.000000 0.000000 0.000000 0.000000 0.000000 0.000000 0.000000 0.000000 0.000000 0.000000 0.000000 0.000000 0.000000 0.000000 0.000000 0.000000 0.000000 0.000000 0.000000 0.000000 0.000000 0.000000 0.000000 0.000000 0.000000 0.000000 0.000000 0.000000 0.000000 0.000000 0.000000 0.000000 0.000000 0.000000 0.000000 0.000000 0.000000 0.000000 0.000000 0.000000 0.000000 0.000000 0.000000 0.000000 0.000000 0.000000 0.000000 0.000000 0.000000 0.000000 0.000000 0.000000 0.000000 0.000000 0.000000 0.000000 0.000000 0.000000 0.000000 0.000000 0.000000 0.000000 0.000000 0.000000 0.000000 0.000000 0.000000 0.000000 0.000000 0.000000 0.000000 0.000000 0.000000 0.000000 0.000000 0.000000 0.000000 0.000000 0.000000 0.000000 0.000000 0.000000 0.000000 0.000000 0.000000 0.000000 0.000000 0.000000 0.000000 0.000000 0.000000 0.000000 0.000000 0.000000 0.000000 0.000000 0.000000 0.000000 0.000000 0.000000 0.000000 0.000000 0.000000 0.000000 0.000000 0.000000 0.000000 0.000000 0.000000 0.000000 0.000000 0.000000 0.000000 0.000000 0.000000 0.000000 0.000000 0.000000 0.000000 0.000000 0.000000 0.000000 0.000000 0.000000 0.000000 0.000000 0.000000 0.000000 0.000000 0.000000 0.000000 0.000000 0.000000 0.000000 0.000000 0.000000 0.000000 0.000000 0.000000 0.000000 0.000000 0.000000 0.000000 0.000000 0.000000 0.000000 0.000000 0.000000 0.000000 0.000000 0.000000 0.000000 0.000000 0.000000 0.000000 0.000000 0.000000 0.000000 0.000000 0.000000 0.000000 0.000000 0.000000 0.000000 0.000000 0.000000 0.000000 0.000000 0.000000 0.000000 0.000000 0.000000
0.082506 0.127602 0.160699 0.185142 0.200803 0.091667 0.136584 0.168064 0.190519 0.204206 0.096725 0.142085 0.172813 0.194163 0.206951 0.099598 0.145316 0.175669 0.196444 0.208789 0.101188 0.147100 0.177236 0.197687 0.209784 0.101959 0.147917 0.177884 0.198117 0.210048 0.102174 0.148049 0.177844 0.197897 0.209695 0.101991 0.147674 0.177269 0.197146 0.208822 0.101510 0.146906 0.176268 0.195959 0.207511 0.100796 0.145827 0.174919 0.194408 0.205831 0.099897 0.144496 0.173284 0.192554 0.203840 0.098850 0.142958 0.171412 0.190446 0.201586 0.097679 0.141249 0.169341 0.188124 0.199112 0.096409 0.139399 0.167107 0.185625 0.196453 0.095056 0.137433 0.164736 0.182977 0.193639 0.093637 0.135371 0.162253 0.180207 0.190697 0.092163 0.133233 0.159679 0.177337 0.187651 0.090646 0.131032 0.157033 0.174387 0.184521 0.089095 0.128784 0.154329 0.171375 0.181326 0.087520 0.126501 0.151583 0.168315 0.178080 0.085928 0.124192 0.148806 0.165222 0.174799 0.084325 0.121867 0.146010 0.162106 0.171493 0.082718 0.119534 0.143204 0.158978 0.168173 0.081110 0.117200 0.140394 0.155845 0.164848 0.079506 0.114871 0.137589 0.152715 0.161524 0.077911 0.112551 0.134792 0.149591 0.158204 0.076325 0.110242 0.132006 0.146477 0.154892 0.074751 0.107948 0.129232 0.143372 0.151585 0.073190 0.105668 0.126470 0.140274 0.148281 0.071641 0.103399 0.123715 0.137176 0.144971 0.070103 0.101138 0.120960 0.134068 0.141642 0.068572 0.098879 0.118194 0.130934 0.138275 0.067043 0.096610 0.115401 0.127753 0.134842 0.065510 0.094318 0.112559 0.124494 0.131307 0.063963 0.091984 0.109637 0.121116 0.127622 0.062389 0.089583 0.106596 0.117565 0.123722 0.060774 0.087081 0.103386 0.113776 0.119532 0.059095 0.084437 0.099939 0.109662 0.114958 0.057329 0.081595 0.096174 0.105126 0.109899 0.055442 0.078486 0.091988 0.100056 0.104253 0.053392 0.075015 0.087261 0.094344 0.097932 0.051120 0.071063 0.081866 0.087897 0.090879 0.048545 0.066481 0.075686 0.080663 0.083078 0.045544 0.061106 0.068651 0.072641 0.074554 0.041942 0.054806 0.060760 0.063881 0.065368 0.037500 0.047536 0.052083 0.054472 0.055608 0.031978 0.039374 0.042745 0.044531 0.045380 0.025323 0.030508 0.032916 0.034201 0.034813 0.017850 0.021239 0.022835 0.023692 0.024101 0.010419 0.012343 0.013255 0.013745 0.013979 